<?xml version="1.0" encoding="UTF-8"?>

<!-- generated on Wednesday 25 October 2017 03:23:23 PM IST by SUMO gui Version 0.30.0
<?xml version="1.0" encoding="UTF-8"?>

<configuration xmlns:xsi="http://www.w3.org/2001/XMLSchema-instance" xsi:noNamespaceSchemaLocation="http://sumo.dlr.de/xsd/sumoConfiguration.xsd">

    <input>
        <net-file value="hello.net.xml"/>
        <route-files value="hello.rou.xml"/>
    </input>

    <output>
        <tripinfo-output value="tripinfo.xml"/>
    </output>

    <time>
        <begin value="0"/>
        <end value="1000"/>
    </time>

    <traci_server>
        <remote-port value="36895"/>
    </traci_server>

    <gui_only>
        <gui-settings-file value="hello.settings.xml"/>
    </gui_only>

</configuration>
-->

<tripinfos xmlns:xsi="http://www.w3.org/2001/XMLSchema-instance" xsi:noNamespaceSchemaLocation="http://sumo.dlr.de/xsd/tripinfo_file.xsd">
    <tripinfo id="type2.0" depart="11.00" departLane="up-down-1_0" departPos="5.10" departSpeed="0.00" departDelay="0.00" arrival="39.00" arrivalLane="up-down-2_0" arrivalPos="95.25" arrivalSpeed="13.90" duration="28.00" routeLength="194.90" waitSteps="0" timeLoss="13.39" rerouteNo="0" devices="tripinfo_type2.0" vType="Car" speedFactor="1.00" vaporized=""/>
    <tripinfo id="type3.0" depart="0.00" departLane="right-left-1_0" departPos="5.10" departSpeed="0.00" departDelay="0.00" arrival="59.00" arrivalLane="right-left-2_0" arrivalPos="95.25" arrivalSpeed="10.50" duration="59.00" routeLength="194.90" waitSteps="19" timeLoss="44.25" rerouteNo="0" devices="tripinfo_type3.0" vType="Car" speedFactor="1.00" vaporized=""/>
    <tripinfo id="type3.1" depart="25.00" departLane="right-left-1_0" departPos="5.10" departSpeed="0.00" departDelay="0.00" arrival="60.00" arrivalLane="right-left-2_0" arrivalPos="95.25" arrivalSpeed="10.50" duration="35.00" routeLength="194.90" waitSteps="0" timeLoss="20.80" rerouteNo="0" devices="tripinfo_type3.1" vType="Car" speedFactor="1.00" vaporized=""/>
    <tripinfo id="type3.2" depart="30.00" departLane="right-left-1_0" departPos="5.10" departSpeed="0.00" departDelay="0.00" arrival="62.00" arrivalLane="right-left-2_0" arrivalPos="95.25" arrivalSpeed="11.00" duration="32.00" routeLength="194.90" waitSteps="1" timeLoss="17.55" rerouteNo="0" devices="tripinfo_type3.2" vType="Car" speedFactor="1.00" vaporized=""/>
    <tripinfo id="type3.3" depart="36.00" departLane="right-left-1_0" departPos="5.10" departSpeed="0.00" departDelay="5.00" arrival="65.00" arrivalLane="right-left-2_0" arrivalPos="95.25" arrivalSpeed="13.90" duration="29.00" routeLength="194.90" waitSteps="1" timeLoss="14.39" rerouteNo="0" devices="tripinfo_type3.3" vType="Car" speedFactor="1.00" vaporized=""/>
    <tripinfo id="type3.4" depart="42.00" departLane="right-left-1_0" departPos="5.10" departSpeed="0.00" departDelay="9.00" arrival="71.00" arrivalLane="right-left-2_0" arrivalPos="95.25" arrivalSpeed="13.90" duration="29.00" routeLength="194.90" waitSteps="1" timeLoss="14.39" rerouteNo="0" devices="tripinfo_type3.4" vType="Car" speedFactor="1.00" vaporized=""/>
    <tripinfo id="type3.5" depart="48.00" departLane="right-left-1_0" departPos="5.10" departSpeed="0.00" departDelay="5.00" arrival="77.00" arrivalLane="right-left-2_0" arrivalPos="95.25" arrivalSpeed="13.90" duration="29.00" routeLength="194.90" waitSteps="1" timeLoss="14.39" rerouteNo="0" devices="tripinfo_type3.5" vType="Car" speedFactor="1.00" vaporized=""/>
    <tripinfo id="type1.0" depart="1.00" departLane="left-right-1_0" departPos="5.10" departSpeed="0.00" departDelay="0.00" arrival="107.00" arrivalLane="left-right-2_0" arrivalPos="95.25" arrivalSpeed="10.50" duration="106.00" routeLength="194.90" waitSteps="66" timeLoss="91.20" rerouteNo="0" devices="tripinfo_type1.0" vType="Car" speedFactor="1.00" vaporized=""/>
    <tripinfo id="type1.1" depart="11.00" departLane="left-right-1_0" departPos="5.10" departSpeed="0.00" departDelay="0.00" arrival="108.00" arrivalLane="left-right-2_0" arrivalPos="95.25" arrivalSpeed="10.50" duration="97.00" routeLength="194.90" waitSteps="58" timeLoss="82.75" rerouteNo="0" devices="tripinfo_type1.1" vType="Car" speedFactor="1.00" vaporized=""/>
    <tripinfo id="type1.2" depart="21.00" departLane="left-right-1_0" departPos="5.10" departSpeed="0.00" departDelay="0.00" arrival="110.00" arrivalLane="left-right-2_0" arrivalPos="95.25" arrivalSpeed="11.00" duration="89.00" routeLength="194.90" waitSteps="49" timeLoss="74.50" rerouteNo="0" devices="tripinfo_type1.2" vType="Car" speedFactor="1.00" vaporized=""/>
    <tripinfo id="type1.3" depart="30.00" departLane="left-right-1_0" departPos="5.10" departSpeed="0.00" departDelay="0.00" arrival="112.00" arrivalLane="left-right-2_0" arrivalPos="95.25" arrivalSpeed="11.50" duration="82.00" routeLength="194.90" waitSteps="42" timeLoss="67.22" rerouteNo="0" devices="tripinfo_type1.3" vType="Car" speedFactor="1.00" vaporized=""/>
    <tripinfo id="type1.4" depart="35.00" departLane="left-right-1_0" departPos="5.10" departSpeed="0.00" departDelay="2.00" arrival="113.00" arrivalLane="left-right-2_0" arrivalPos="95.25" arrivalSpeed="11.50" duration="78.00" routeLength="194.90" waitSteps="39" timeLoss="63.77" rerouteNo="0" devices="tripinfo_type1.4" vType="Car" speedFactor="1.00" vaporized=""/>
    <tripinfo id="type1.5" depart="43.00" departLane="left-right-1_0" departPos="5.10" departSpeed="0.00" departDelay="0.00" arrival="115.00" arrivalLane="left-right-2_0" arrivalPos="95.25" arrivalSpeed="12.00" duration="72.00" routeLength="194.90" waitSteps="33" timeLoss="57.48" rerouteNo="0" devices="tripinfo_type1.5" vType="Car" speedFactor="1.00" vaporized=""/>
    <tripinfo id="type1.6" depart="48.00" departLane="left-right-1_0" departPos="5.10" departSpeed="0.00" departDelay="3.00" arrival="117.00" arrivalLane="left-right-2_0" arrivalPos="95.25" arrivalSpeed="12.50" duration="69.00" routeLength="194.90" waitSteps="31" timeLoss="54.12" rerouteNo="0" devices="tripinfo_type1.6" vType="Car" speedFactor="1.00" vaporized=""/>
    <tripinfo id="type1.7" depart="54.00" departLane="left-right-1_0" departPos="5.10" departSpeed="0.00" departDelay="1.00" arrival="118.00" arrivalLane="left-right-2_0" arrivalPos="95.25" arrivalSpeed="12.50" duration="64.00" routeLength="194.90" waitSteps="27" timeLoss="49.66" rerouteNo="0" devices="tripinfo_type1.7" vType="Car" speedFactor="1.00" vaporized=""/>
    <tripinfo id="type1.8" depart="60.00" departLane="left-right-1_0" departPos="5.10" departSpeed="0.00" departDelay="4.00" arrival="120.00" arrivalLane="left-right-2_0" arrivalPos="95.25" arrivalSpeed="13.00" duration="60.00" routeLength="194.90" waitSteps="23" timeLoss="45.27" rerouteNo="0" devices="tripinfo_type1.8" vType="Car" speedFactor="1.00" vaporized=""/>
    <tripinfo id="type2.1" depart="23.00" departLane="up-down-1_0" departPos="5.10" departSpeed="0.00" departDelay="0.00" arrival="138.00" arrivalLane="up-down-2_0" arrivalPos="95.25" arrivalSpeed="10.50" duration="115.00" routeLength="194.90" waitSteps="75" timeLoss="100.19" rerouteNo="0" devices="tripinfo_type2.1" vType="Car" speedFactor="1.00" vaporized=""/>
    <tripinfo id="type2.2" depart="31.00" departLane="up-down-1_0" departPos="5.10" departSpeed="0.00" departDelay="0.00" arrival="139.00" arrivalLane="up-down-2_0" arrivalPos="95.25" arrivalSpeed="10.50" duration="108.00" routeLength="194.90" waitSteps="69" timeLoss="93.74" rerouteNo="0" devices="tripinfo_type2.2" vType="Car" speedFactor="1.00" vaporized=""/>
    <tripinfo id="type2.3" depart="36.00" departLane="up-down-1_0" departPos="5.10" departSpeed="0.00" departDelay="2.00" arrival="141.00" arrivalLane="up-down-2_0" arrivalPos="95.25" arrivalSpeed="11.00" duration="105.00" routeLength="194.90" waitSteps="65" timeLoss="90.49" rerouteNo="0" devices="tripinfo_type2.3" vType="Car" speedFactor="1.00" vaporized=""/>
    <tripinfo id="type2.4" depart="42.00" departLane="up-down-1_0" departPos="5.10" departSpeed="0.00" departDelay="4.00" arrival="143.00" arrivalLane="up-down-2_0" arrivalPos="95.25" arrivalSpeed="11.50" duration="101.00" routeLength="194.90" waitSteps="61" timeLoss="86.20" rerouteNo="0" devices="tripinfo_type2.4" vType="Car" speedFactor="1.00" vaporized=""/>
    <tripinfo id="type3.6" depart="54.00" departLane="right-left-1_0" departPos="5.10" departSpeed="0.00" departDelay="3.00" arrival="159.00" arrivalLane="right-left-2_0" arrivalPos="95.25" arrivalSpeed="10.50" duration="105.00" routeLength="194.90" waitSteps="65" timeLoss="90.20" rerouteNo="0" devices="tripinfo_type3.6" vType="Car" speedFactor="1.00" vaporized=""/>
    <tripinfo id="type3.7" depart="61.00" departLane="right-left-1_0" departPos="5.10" departSpeed="0.00" departDelay="0.00" arrival="160.00" arrivalLane="right-left-2_0" arrivalPos="95.25" arrivalSpeed="10.50" duration="99.00" routeLength="194.90" waitSteps="60" timeLoss="84.75" rerouteNo="0" devices="tripinfo_type3.7" vType="Car" speedFactor="1.00" vaporized=""/>
    <tripinfo id="type3.8" depart="68.00" departLane="right-left-1_0" departPos="5.10" departSpeed="0.00" departDelay="0.00" arrival="162.00" arrivalLane="right-left-2_0" arrivalPos="95.25" arrivalSpeed="11.00" duration="94.00" routeLength="194.90" waitSteps="54" timeLoss="79.50" rerouteNo="0" devices="tripinfo_type3.8" vType="Car" speedFactor="1.00" vaporized=""/>
    <tripinfo id="type3.9" depart="97.00" departLane="right-left-1_0" departPos="5.10" departSpeed="0.00" departDelay="0.00" arrival="164.00" arrivalLane="right-left-2_0" arrivalPos="95.25" arrivalSpeed="11.50" duration="67.00" routeLength="194.90" waitSteps="27" timeLoss="52.24" rerouteNo="0" devices="tripinfo_type3.9" vType="Car" speedFactor="1.00" vaporized=""/>
    <tripinfo id="type3.10" depart="113.00" departLane="right-left-1_0" departPos="5.10" departSpeed="0.00" departDelay="1.00" arrival="165.00" arrivalLane="right-left-2_0" arrivalPos="95.25" arrivalSpeed="11.50" duration="52.00" routeLength="194.90" waitSteps="13" timeLoss="37.79" rerouteNo="0" devices="tripinfo_type3.10" vType="Car" speedFactor="1.00" vaporized=""/>
    <tripinfo id="type3.11" depart="120.00" departLane="right-left-1_0" departPos="5.10" departSpeed="0.00" departDelay="5.00" arrival="167.00" arrivalLane="right-left-2_0" arrivalPos="95.25" arrivalSpeed="12.00" duration="47.00" routeLength="194.90" waitSteps="8" timeLoss="32.48" rerouteNo="0" devices="tripinfo_type3.11" vType="Car" speedFactor="1.00" vaporized=""/>
    <tripinfo id="type3.12" depart="125.00" departLane="right-left-1_0" departPos="5.10" departSpeed="0.00" departDelay="8.00" arrival="169.00" arrivalLane="right-left-2_0" arrivalPos="95.25" arrivalSpeed="12.50" duration="44.00" routeLength="194.90" waitSteps="6" timeLoss="29.12" rerouteNo="0" devices="tripinfo_type3.12" vType="Car" speedFactor="1.00" vaporized=""/>
    <tripinfo id="type3.13" depart="131.00" departLane="right-left-1_0" departPos="5.10" departSpeed="0.00" departDelay="1.00" arrival="170.00" arrivalLane="right-left-2_0" arrivalPos="95.25" arrivalSpeed="12.50" duration="39.00" routeLength="194.90" waitSteps="2" timeLoss="24.66" rerouteNo="0" devices="tripinfo_type3.13" vType="Car" speedFactor="1.00" vaporized=""/>
    <tripinfo id="type3.14" depart="145.00" departLane="right-left-1_0" departPos="5.10" departSpeed="0.00" departDelay="0.00" arrival="173.00" arrivalLane="right-left-2_0" arrivalPos="95.25" arrivalSpeed="13.90" duration="28.00" routeLength="194.90" waitSteps="0" timeLoss="13.39" rerouteNo="0" devices="tripinfo_type3.14" vType="Car" speedFactor="1.00" vaporized=""/>
    <tripinfo id="type4.0" depart="3.00" departLane="down-up-1_0" departPos="5.10" departSpeed="0.00" departDelay="0.00" arrival="194.00" arrivalLane="down-up-2_0" arrivalPos="95.25" arrivalSpeed="10.50" duration="191.00" routeLength="194.90" waitSteps="150" timeLoss="176.17" rerouteNo="0" devices="tripinfo_type4.0" vType="Car" speedFactor="1.00" vaporized=""/>
    <tripinfo id="type4.1" depart="8.00" departLane="down-up-1_0" departPos="5.10" departSpeed="0.00" departDelay="1.00" arrival="195.00" arrivalLane="down-up-2_0" arrivalPos="95.25" arrivalSpeed="10.50" duration="187.00" routeLength="194.90" waitSteps="147" timeLoss="172.62" rerouteNo="0" devices="tripinfo_type4.1" vType="Car" speedFactor="1.00" vaporized=""/>
    <tripinfo id="type4.2" depart="14.00" departLane="down-up-1_0" departPos="5.10" departSpeed="0.00" departDelay="5.00" arrival="197.00" arrivalLane="down-up-2_0" arrivalPos="95.25" arrivalSpeed="11.00" duration="183.00" routeLength="194.90" waitSteps="142" timeLoss="168.38" rerouteNo="0" devices="tripinfo_type4.2" vType="Car" speedFactor="1.00" vaporized=""/>
    <tripinfo id="type4.3" depart="20.00" departLane="down-up-1_0" departPos="5.10" departSpeed="0.00" departDelay="2.00" arrival="199.00" arrivalLane="down-up-2_0" arrivalPos="95.25" arrivalSpeed="11.50" duration="179.00" routeLength="194.90" waitSteps="138" timeLoss="164.09" rerouteNo="0" devices="tripinfo_type4.3" vType="Car" speedFactor="1.00" vaporized=""/>
    <tripinfo id="type4.4" depart="27.00" departLane="down-up-1_0" departPos="5.10" departSpeed="0.00" departDelay="0.00" arrival="200.00" arrivalLane="down-up-2_0" arrivalPos="95.25" arrivalSpeed="11.50" duration="173.00" routeLength="194.90" waitSteps="133" timeLoss="158.64" rerouteNo="0" devices="tripinfo_type4.4" vType="Car" speedFactor="1.00" vaporized=""/>
    <tripinfo id="type4.5" depart="32.00" departLane="down-up-1_0" departPos="5.10" departSpeed="0.00" departDelay="3.00" arrival="202.00" arrivalLane="down-up-2_0" arrivalPos="95.25" arrivalSpeed="12.00" duration="170.00" routeLength="194.90" waitSteps="130" timeLoss="155.44" rerouteNo="0" devices="tripinfo_type4.5" vType="Car" speedFactor="1.00" vaporized=""/>
    <tripinfo id="type4.6" depart="43.00" departLane="down-up-1_0" departPos="5.10" departSpeed="0.00" departDelay="0.00" arrival="204.00" arrivalLane="down-up-2_0" arrivalPos="95.25" arrivalSpeed="12.50" duration="161.00" routeLength="194.90" waitSteps="122" timeLoss="146.09" rerouteNo="0" devices="tripinfo_type4.6" vType="Car" speedFactor="1.00" vaporized=""/>
    <tripinfo id="type4.7" depart="48.00" departLane="down-up-1_0" departPos="5.10" departSpeed="0.00" departDelay="0.00" arrival="205.00" arrivalLane="down-up-2_0" arrivalPos="95.25" arrivalSpeed="12.50" duration="157.00" routeLength="194.90" waitSteps="119" timeLoss="142.62" rerouteNo="0" devices="tripinfo_type4.7" vType="Car" speedFactor="1.00" vaporized=""/>
    <tripinfo id="type4.8" depart="68.00" departLane="down-up-1_0" departPos="5.10" departSpeed="0.00" departDelay="0.00" arrival="207.00" arrivalLane="down-up-2_0" arrivalPos="95.25" arrivalSpeed="13.00" duration="139.00" routeLength="194.90" waitSteps="101" timeLoss="124.23" rerouteNo="0" devices="tripinfo_type4.8" vType="Car" speedFactor="1.00" vaporized=""/>
    <tripinfo id="type4.9" depart="73.00" departLane="down-up-1_0" departPos="5.10" departSpeed="0.00" departDelay="2.00" arrival="208.00" arrivalLane="down-up-2_0" arrivalPos="95.25" arrivalSpeed="13.00" duration="135.00" routeLength="194.90" waitSteps="99" timeLoss="120.67" rerouteNo="0" devices="tripinfo_type4.9" vType="Car" speedFactor="1.00" vaporized=""/>
    <tripinfo id="type4.10" depart="79.00" departLane="down-up-1_0" departPos="5.10" departSpeed="0.00" departDelay="0.00" arrival="210.00" arrivalLane="down-up-2_0" arrivalPos="95.25" arrivalSpeed="13.50" duration="131.00" routeLength="194.90" waitSteps="96" timeLoss="116.24" rerouteNo="0" devices="tripinfo_type4.10" vType="Car" speedFactor="1.00" vaporized=""/>
    <tripinfo id="type4.11" depart="85.00" departLane="down-up-1_0" departPos="5.10" departSpeed="0.00" departDelay="3.00" arrival="211.00" arrivalLane="down-up-2_0" arrivalPos="95.25" arrivalSpeed="13.50" duration="126.00" routeLength="194.90" waitSteps="94" timeLoss="111.88" rerouteNo="0" devices="tripinfo_type4.11" vType="Car" speedFactor="1.00" vaporized=""/>
    <tripinfo id="type4.12" depart="185.00" departLane="down-up-1_0" departPos="5.10" departSpeed="0.00" departDelay="93.00" arrival="214.00" arrivalLane="down-up-2_0" arrivalPos="95.25" arrivalSpeed="13.90" duration="29.00" routeLength="194.90" waitSteps="0" timeLoss="14.11" rerouteNo="0" devices="tripinfo_type4.12" vType="Car" speedFactor="1.00" vaporized=""/>
    <tripinfo id="type4.13" depart="191.00" departLane="down-up-1_0" departPos="5.10" departSpeed="0.00" departDelay="89.00" arrival="219.00" arrivalLane="down-up-2_0" arrivalPos="95.25" arrivalSpeed="13.90" duration="28.00" routeLength="194.90" waitSteps="0" timeLoss="13.39" rerouteNo="0" devices="tripinfo_type4.13" vType="Car" speedFactor="1.00" vaporized=""/>
    <tripinfo id="type1.9" depart="66.00" departLane="left-right-1_0" departPos="5.10" departSpeed="0.00" departDelay="6.00" arrival="243.00" arrivalLane="left-right-2_0" arrivalPos="95.25" arrivalSpeed="10.50" duration="177.00" routeLength="194.90" waitSteps="130" timeLoss="162.14" rerouteNo="0" devices="tripinfo_type1.9" vType="Car" speedFactor="1.00" vaporized=""/>
    <tripinfo id="type1.10" depart="72.00" departLane="left-right-1_0" departPos="5.10" departSpeed="0.00" departDelay="3.00" arrival="244.00" arrivalLane="left-right-2_0" arrivalPos="95.25" arrivalSpeed="10.50" duration="172.00" routeLength="194.90" waitSteps="126" timeLoss="157.68" rerouteNo="0" devices="tripinfo_type1.10" vType="Car" speedFactor="1.00" vaporized=""/>
    <tripinfo id="type1.11" depart="78.00" departLane="left-right-1_0" departPos="5.10" departSpeed="0.00" departDelay="5.00" arrival="246.00" arrivalLane="left-right-2_0" arrivalPos="95.25" arrivalSpeed="11.00" duration="168.00" routeLength="194.90" waitSteps="124" timeLoss="153.44" rerouteNo="0" devices="tripinfo_type1.11" vType="Car" speedFactor="1.00" vaporized=""/>
    <tripinfo id="type1.12" depart="99.00" departLane="left-right-1_0" departPos="5.10" departSpeed="0.00" departDelay="11.00" arrival="248.00" arrivalLane="left-right-2_0" arrivalPos="95.25" arrivalSpeed="11.50" duration="149.00" routeLength="194.90" waitSteps="109" timeLoss="134.16" rerouteNo="0" devices="tripinfo_type1.12" vType="Car" speedFactor="1.00" vaporized=""/>
    <tripinfo id="type1.13" depart="117.00" departLane="left-right-1_0" departPos="5.10" departSpeed="0.00" departDelay="0.00" arrival="249.00" arrivalLane="left-right-2_0" arrivalPos="95.25" arrivalSpeed="11.50" duration="132.00" routeLength="194.90" waitSteps="93" timeLoss="117.71" rerouteNo="0" devices="tripinfo_type1.13" vType="Car" speedFactor="1.00" vaporized=""/>
    <tripinfo id="type1.14" depart="122.00" departLane="left-right-1_0" departPos="5.10" departSpeed="0.00" departDelay="3.00" arrival="251.00" arrivalLane="left-right-2_0" arrivalPos="95.25" arrivalSpeed="12.00" duration="129.00" routeLength="194.90" waitSteps="90" timeLoss="114.48" rerouteNo="0" devices="tripinfo_type1.14" vType="Car" speedFactor="1.00" vaporized=""/>
    <tripinfo id="type1.15" depart="134.00" departLane="left-right-1_0" departPos="5.10" departSpeed="0.00" departDelay="0.00" arrival="253.00" arrivalLane="left-right-2_0" arrivalPos="95.25" arrivalSpeed="12.50" duration="119.00" routeLength="194.90" waitSteps="81" timeLoss="104.12" rerouteNo="0" devices="tripinfo_type1.15" vType="Car" speedFactor="1.00" vaporized=""/>
    <tripinfo id="type1.16" depart="139.00" departLane="left-right-1_0" departPos="5.10" departSpeed="0.00" departDelay="1.00" arrival="254.00" arrivalLane="left-right-2_0" arrivalPos="95.25" arrivalSpeed="12.50" duration="115.00" routeLength="194.90" waitSteps="78" timeLoss="100.66" rerouteNo="0" devices="tripinfo_type1.16" vType="Car" speedFactor="1.00" vaporized=""/>
    <tripinfo id="type1.17" depart="145.00" departLane="left-right-1_0" departPos="5.10" departSpeed="0.00" departDelay="4.00" arrival="256.00" arrivalLane="left-right-2_0" arrivalPos="95.25" arrivalSpeed="13.00" duration="111.00" routeLength="194.90" waitSteps="74" timeLoss="96.27" rerouteNo="0" devices="tripinfo_type1.17" vType="Car" speedFactor="1.00" vaporized=""/>
    <tripinfo id="type1.18" depart="160.00" departLane="left-right-1_0" departPos="5.10" departSpeed="0.00" departDelay="3.00" arrival="257.00" arrivalLane="left-right-2_0" arrivalPos="95.25" arrivalSpeed="13.00" duration="97.00" routeLength="194.90" waitSteps="62" timeLoss="82.74" rerouteNo="0" devices="tripinfo_type1.18" vType="Car" speedFactor="1.00" vaporized=""/>
    <tripinfo id="type1.19" depart="165.00" departLane="left-right-1_0" departPos="5.10" departSpeed="0.00" departDelay="5.00" arrival="259.00" arrivalLane="left-right-2_0" arrivalPos="95.25" arrivalSpeed="13.50" duration="94.00" routeLength="194.90" waitSteps="59" timeLoss="79.32" rerouteNo="0" devices="tripinfo_type1.19" vType="Car" speedFactor="1.00" vaporized=""/>
    <tripinfo id="type1.20" depart="173.00" departLane="left-right-1_0" departPos="5.10" departSpeed="0.00" departDelay="9.00" arrival="260.00" arrivalLane="left-right-2_0" arrivalPos="95.25" arrivalSpeed="13.50" duration="87.00" routeLength="194.90" waitSteps="55" timeLoss="72.91" rerouteNo="0" devices="tripinfo_type1.20" vType="Car" speedFactor="1.00" vaporized=""/>
    <tripinfo id="type1.21" depart="235.00" departLane="left-right-1_0" departPos="5.10" departSpeed="0.00" departDelay="70.00" arrival="263.00" arrivalLane="left-right-2_0" arrivalPos="95.25" arrivalSpeed="13.90" duration="28.00" routeLength="194.90" waitSteps="0" timeLoss="13.39" rerouteNo="0" devices="tripinfo_type1.21" vType="Car" speedFactor="1.00" vaporized=""/>
    <tripinfo id="type1.22" depart="240.00" departLane="left-right-1_0" departPos="5.10" departSpeed="0.00" departDelay="68.00" arrival="269.00" arrivalLane="left-right-2_0" arrivalPos="95.25" arrivalSpeed="13.90" duration="29.00" routeLength="194.90" waitSteps="1" timeLoss="14.39" rerouteNo="0" devices="tripinfo_type1.22" vType="Car" speedFactor="1.00" vaporized=""/>
    <tripinfo id="type1.23" depart="246.00" departLane="left-right-1_0" departPos="5.10" departSpeed="0.00" departDelay="53.00" arrival="275.00" arrivalLane="left-right-2_0" arrivalPos="95.25" arrivalSpeed="13.90" duration="29.00" routeLength="194.90" waitSteps="1" timeLoss="14.39" rerouteNo="0" devices="tripinfo_type1.23" vType="Car" speedFactor="1.00" vaporized=""/>
    <tripinfo id="type2.5" depart="48.00" departLane="up-down-1_0" departPos="5.10" departSpeed="0.00" departDelay="2.00" arrival="297.00" arrivalLane="up-down-2_0" arrivalPos="95.25" arrivalSpeed="10.50" duration="249.00" routeLength="194.90" waitSteps="201" timeLoss="234.06" rerouteNo="0" devices="tripinfo_type2.5" vType="Car" speedFactor="1.00" vaporized=""/>
    <tripinfo id="type2.6" depart="54.00" departLane="up-down-1_0" departPos="5.10" departSpeed="0.00" departDelay="0.00" arrival="298.00" arrivalLane="up-down-2_0" arrivalPos="95.25" arrivalSpeed="10.50" duration="244.00" routeLength="194.90" waitSteps="197" timeLoss="229.66" rerouteNo="0" devices="tripinfo_type2.6" vType="Car" speedFactor="1.00" vaporized=""/>
    <tripinfo id="type2.7" depart="60.00" departLane="up-down-1_0" departPos="5.10" departSpeed="0.00" departDelay="1.00" arrival="300.00" arrivalLane="up-down-2_0" arrivalPos="95.25" arrivalSpeed="11.00" duration="240.00" routeLength="194.90" waitSteps="194" timeLoss="225.41" rerouteNo="0" devices="tripinfo_type2.7" vType="Car" speedFactor="1.00" vaporized=""/>
    <tripinfo id="type2.8" depart="90.00" departLane="up-down-1_0" departPos="5.10" departSpeed="0.00" departDelay="0.00" arrival="302.00" arrivalLane="up-down-2_0" arrivalPos="95.25" arrivalSpeed="11.50" duration="212.00" routeLength="194.90" waitSteps="166" timeLoss="197.12" rerouteNo="0" devices="tripinfo_type2.8" vType="Car" speedFactor="1.00" vaporized=""/>
    <tripinfo id="type2.9" depart="101.00" departLane="up-down-1_0" departPos="5.10" departSpeed="0.00" departDelay="0.00" arrival="303.00" arrivalLane="up-down-2_0" arrivalPos="95.25" arrivalSpeed="11.50" duration="202.00" routeLength="194.90" waitSteps="157" timeLoss="187.66" rerouteNo="0" devices="tripinfo_type2.9" vType="Car" speedFactor="1.00" vaporized=""/>
    <tripinfo id="type2.10" depart="108.00" departLane="up-down-1_0" departPos="5.10" departSpeed="0.00" departDelay="0.00" arrival="305.00" arrivalLane="up-down-2_0" arrivalPos="95.25" arrivalSpeed="12.00" duration="197.00" routeLength="194.90" waitSteps="153" timeLoss="182.47" rerouteNo="0" devices="tripinfo_type2.10" vType="Car" speedFactor="1.00" vaporized=""/>
    <tripinfo id="type2.11" depart="114.00" departLane="up-down-1_0" departPos="5.10" departSpeed="0.00" departDelay="0.00" arrival="307.00" arrivalLane="up-down-2_0" arrivalPos="95.25" arrivalSpeed="12.50" duration="193.00" routeLength="194.90" waitSteps="149" timeLoss="178.12" rerouteNo="0" devices="tripinfo_type2.11" vType="Car" speedFactor="1.00" vaporized=""/>
    <tripinfo id="type2.12" depart="131.00" departLane="up-down-1_0" departPos="5.10" departSpeed="0.00" departDelay="0.00" arrival="308.00" arrivalLane="up-down-2_0" arrivalPos="95.25" arrivalSpeed="12.50" duration="177.00" routeLength="194.90" waitSteps="140" timeLoss="162.66" rerouteNo="0" devices="tripinfo_type2.12" vType="Car" speedFactor="1.00" vaporized=""/>
    <tripinfo id="type2.13" depart="136.00" departLane="up-down-1_0" departPos="5.10" departSpeed="0.00" departDelay="3.00" arrival="310.00" arrivalLane="up-down-2_0" arrivalPos="95.25" arrivalSpeed="13.00" duration="174.00" routeLength="194.90" waitSteps="137" timeLoss="159.26" rerouteNo="0" devices="tripinfo_type2.13" vType="Car" speedFactor="1.00" vaporized=""/>
    <tripinfo id="type2.14" depart="142.00" departLane="up-down-1_0" departPos="5.10" departSpeed="0.00" departDelay="5.00" arrival="311.00" arrivalLane="up-down-2_0" arrivalPos="95.25" arrivalSpeed="13.00" duration="169.00" routeLength="194.90" waitSteps="134" timeLoss="154.67" rerouteNo="0" devices="tripinfo_type2.14" vType="Car" speedFactor="1.00" vaporized=""/>
    <tripinfo id="type2.15" depart="152.00" departLane="up-down-1_0" departPos="5.10" departSpeed="0.00" departDelay="0.00" arrival="313.00" arrivalLane="up-down-2_0" arrivalPos="95.25" arrivalSpeed="13.50" duration="161.00" routeLength="194.90" waitSteps="126" timeLoss="146.25" rerouteNo="0" devices="tripinfo_type2.15" vType="Car" speedFactor="1.00" vaporized=""/>
    <tripinfo id="type2.16" depart="158.00" departLane="up-down-1_0" departPos="5.10" departSpeed="0.00" departDelay="0.00" arrival="314.00" arrivalLane="up-down-2_0" arrivalPos="95.25" arrivalSpeed="13.50" duration="156.00" routeLength="194.90" waitSteps="124" timeLoss="141.91" rerouteNo="0" devices="tripinfo_type2.16" vType="Car" speedFactor="1.00" vaporized=""/>
    <tripinfo id="type2.17" depart="289.00" departLane="up-down-1_0" departPos="5.10" departSpeed="0.00" departDelay="125.00" arrival="317.00" arrivalLane="up-down-2_0" arrivalPos="95.25" arrivalSpeed="13.90" duration="28.00" routeLength="194.90" waitSteps="0" timeLoss="13.39" rerouteNo="0" devices="tripinfo_type2.17" vType="Car" speedFactor="1.00" vaporized=""/>
    <tripinfo id="type2.18" depart="294.00" departLane="up-down-1_0" departPos="5.10" departSpeed="0.00" departDelay="127.00" arrival="323.00" arrivalLane="up-down-2_0" arrivalPos="95.25" arrivalSpeed="13.90" duration="29.00" routeLength="194.90" waitSteps="1" timeLoss="14.39" rerouteNo="0" devices="tripinfo_type2.18" vType="Car" speedFactor="1.00" vaporized=""/>
    <tripinfo id="type2.19" depart="300.00" departLane="up-down-1_0" departPos="5.10" departSpeed="0.00" departDelay="111.00" arrival="329.00" arrivalLane="up-down-2_0" arrivalPos="95.25" arrivalSpeed="13.90" duration="29.00" routeLength="194.90" waitSteps="1" timeLoss="14.39" rerouteNo="0" devices="tripinfo_type2.19" vType="Car" speedFactor="1.00" vaporized=""/>
    <tripinfo id="type3.15" depart="162.00" departLane="right-left-1_0" departPos="5.10" departSpeed="0.00" departDelay="0.00" arrival="352.00" arrivalLane="right-left-2_0" arrivalPos="95.25" arrivalSpeed="10.50" duration="190.00" routeLength="194.90" waitSteps="150" timeLoss="175.12" rerouteNo="0" devices="tripinfo_type3.15" vType="Car" speedFactor="1.00" vaporized=""/>
    <tripinfo id="type3.16" depart="167.00" departLane="right-left-1_0" departPos="5.10" departSpeed="0.00" departDelay="2.00" arrival="353.00" arrivalLane="right-left-2_0" arrivalPos="95.25" arrivalSpeed="10.50" duration="186.00" routeLength="194.90" waitSteps="147" timeLoss="171.66" rerouteNo="0" devices="tripinfo_type3.16" vType="Car" speedFactor="1.00" vaporized=""/>
    <tripinfo id="type3.17" depart="173.00" departLane="right-left-1_0" departPos="5.10" departSpeed="0.00" departDelay="1.00" arrival="355.00" arrivalLane="right-left-2_0" arrivalPos="95.25" arrivalSpeed="11.00" duration="182.00" routeLength="194.90" waitSteps="142" timeLoss="167.41" rerouteNo="0" devices="tripinfo_type3.17" vType="Car" speedFactor="1.00" vaporized=""/>
    <tripinfo id="type3.18" depart="179.00" departLane="right-left-1_0" departPos="5.10" departSpeed="0.00" departDelay="2.00" arrival="357.00" arrivalLane="right-left-2_0" arrivalPos="95.25" arrivalSpeed="11.50" duration="178.00" routeLength="194.90" waitSteps="138" timeLoss="163.13" rerouteNo="0" devices="tripinfo_type3.18" vType="Car" speedFactor="1.00" vaporized=""/>
    <tripinfo id="type3.19" depart="185.00" departLane="right-left-1_0" departPos="5.10" departSpeed="0.00" departDelay="3.00" arrival="358.00" arrivalLane="right-left-2_0" arrivalPos="95.25" arrivalSpeed="11.50" duration="173.00" routeLength="194.90" waitSteps="134" timeLoss="158.67" rerouteNo="0" devices="tripinfo_type3.19" vType="Car" speedFactor="1.00" vaporized=""/>
    <tripinfo id="type3.20" depart="191.00" departLane="right-left-1_0" departPos="5.10" departSpeed="0.00" departDelay="8.00" arrival="360.00" arrivalLane="right-left-2_0" arrivalPos="95.25" arrivalSpeed="12.00" duration="169.00" routeLength="194.90" waitSteps="130" timeLoss="154.48" rerouteNo="0" devices="tripinfo_type3.20" vType="Car" speedFactor="1.00" vaporized=""/>